 Gaussian 16, Revision A.03,
 Gaussian 16:  AS64L-G16RevA.03 25-Dec-2016

 ----------------------------------------------------------------------
 #p opt=(ts,calcfc,noeigentest) freq=noraman b3lyp/genecp empiricaldisp
 ersion=gd3bj
 ----------------------------------------------------------------------

 -----
 title
 -----
 Symbolic Z-matrix:
 Charge =  0 Multiplicity = 1

 SCF Done:  E(RB3LYP) =  -271.705290056     A.U. after   16 cycles
 SCF Done:  E(RB3LYP) =  -271.703214956     A.U. after   14 cycles
 SCF Done:  E(RB3LYP) =  -271.700888853     A.U. after   14 cycles
 SCF Done:  E(RB3LYP) =  -271.700111606     A.U. after   14 cycles
 SCF Done:  E(RB3LYP) =  -271.702342804     A.U. after   13 cycles
 SCF Done:  E(RB3LYP) =  -271.703565694     A.U. after   13 cycles
 SCF Done:  E(RB3LYP) =  -271.703830239     A.U. after   12 cycles
 SCF Done:  E(RB3LYP) =  -271.702222413     A.U. after   13 cycles
 SCF Done:  E(RB3LYP) =  -271.703855989     A.U. after   13 cycles
 SCF Done:  E(RB3LYP) =  -271.703759601     A.U. after   12 cycles
 SCF Done:  E(RB3LYP) =  -271.702734950     A.U. after   13 cycles
 SCF Done:  E(RB3LYP) =  -271.703833474     A.U. after   12 cycles
 SCF Done:  E(RB3LYP) =  -271.703995843     A.U. after   11 cycles
 SCF Done:  E(RB3LYP) =  -271.704006413     A.U. after   11 cycles
 SCF Done:  E(RB3LYP) =  -271.704006502     A.U. after    9 cycles
 SCF Done:  E(RB3LYP) =  -271.704008442     A.U. after    9 cycles
 SCF Done:  E(RB3LYP) =  -271.704008650     A.U. after    8 cycles
 SCF Done:  E(RB3LYP) =  -271.704008772     A.U. after    8 cycles
 Optimization completed.
    -- Stationary point found.
 Normal termination of Gaussian 16 at Mon Aug  5 15:01:50 2019.

 ------------------------------------------------------------------
 #P Geom=AllCheck Guess=TCheck SCRF=Check GenChk RB3LYP/GenECP Freq
 ------------------------------------------------------------------

 Structure from the checkpoint file:  "/scratch/users/cwagen/cwagen_propene_acetaldehyde_TS/Gau-50243.chk"
 -----
 title
 -----
 Charge =  0 Multiplicity = 1

                         Standard orientation:
 ---------------------------------------------------------------------
 Center     Atomic      Atomic             Coordinates (Angstroms)
 Number     Number       Type             X           Y           Z
 ---------------------------------------------------------------------
      1          6           0       -1.000590    0.221022    0.465543
      2          6           0       -1.879714   -0.298506   -0.663983
      3          1           0       -1.393344    0.016630    1.472161
      4          1           0       -2.769610    0.338897   -0.740286
      5          1           0       -1.352884   -0.242678   -1.621470
      6          1           0       -2.208005   -1.329011   -0.491372
      7          8           0       -0.443942    1.383133    0.314895
      8          6           0        0.429198   -1.135518    0.694806
      9          6           0        1.244844   -0.736436   -0.369486
     10          1           0       -0.080143   -2.094698    0.643978
     11          1           0        0.731620   -0.838629    1.697218
     12          6           0        1.878888    0.522695   -0.343394
     13          1           0        1.091399   -1.214778   -1.337014
     14          1           0        2.425127    0.844537   -1.228428
     15          1           0        0.737036    1.175191   -0.211400
     16          1           0        2.334578    0.839937    0.596534
 ---------------------------------------------------------------------

 SCF Done:  E(RB3LYP) =  -271.704008772     A.U. after    1 cycles

 The electronic state is 1-A.
 Alpha  occ. eigenvalues --  -19.11530 -10.24815 -10.21015 -10.18901 -10.17200
 Alpha  occ. eigenvalues --  -10.16834  -1.00108  -0.80739  -0.73477  -0.68447
 Alpha  occ. eigenvalues --   -0.58144  -0.56293  -0.48371  -0.46759  -0.45212
 Alpha  occ. eigenvalues --   -0.42960  -0.41134  -0.38900  -0.37982  -0.37581
 Alpha  occ. eigenvalues --   -0.36115  -0.27678  -0.26340  -0.23720
 Alpha virt. eigenvalues --   -0.03489   0.07456   0.09217   0.11231   0.13759
 Alpha virt. eigenvalues --    0.14591   0.15814   0.17260   0.18105   0.20112
 Alpha virt. eigenvalues --    0.20396   0.23248   0.25929   0.28982   0.30957

 Mulliken charges:
               1
     1  C    0.172484
     2  C   -0.456433
     3  H    0.130016
     4  H    0.162472
     5  H    0.151863
     6  H    0.134921
     7  O   -0.523954
     8  C   -0.375579
     9  C    0.000696
    10  H    0.152194
    11  H    0.165350
    12  C   -0.534647
    13  H    0.145683
    14  H    0.155944
    15  H    0.340160
    16  H    0.178829
 Sum of Mulliken charges =   0.00000

 Dipole moment (field-independent basis, Debye):
    X=              0.3018    Y=             -2.1362    Z=             -0.3660  Tot=              2.1882
 Quadrupole moment (field-independent basis, Debye-Ang):
   XX=            -37.0216   YY=            -41.4726   ZZ=            -36.3957
   XY=              2.3405   XZ=             -0.6547   YZ=             -0.6770

  Exact polarizability:  73.656   2.892  58.147  -5.900  -1.012  53.008
 Approx polarizability: 107.357  -2.343 103.134 -16.319  -0.044  77.619

 ******    1 imaginary frequencies (negative Signs) ******

                      1                      2                      3
                      A                      A                      A
 Frequencies --  -1315.3901               109.5347               216.9540
 Red. masses --      1.3995                 2.8670                 1.0514
 Frc consts  --      1.4267                 0.0203                 0.0292
 IR Inten    --     71.3657                 1.0493                 0.4116

                      4                      5                      6
                      A                      A                      A
 Frequencies --    263.8237               334.3419               400.9728
 Red. masses --      2.6516                 3.1030                 2.0031
 Frc consts  --      0.1087                 0.2044                 0.1898
 IR Inten    --      8.5659                52.9479                 3.4950

                      7                      8                      9
                      A                      A                      A
 Frequencies --    449.1282               466.3349               504.0312
 Red. masses --      2.5932                 2.2764                 2.9126
 Frc consts  --      0.3082                 0.2917                 0.4360
 IR Inten    --     24.5203                 5.8952                13.9784

                     10                     11                     12
                      A                      A                      A
 Frequencies --    598.7573               680.0838               836.8595
 Red. masses --      3.8619                 1.3530                 1.3897
 Frc consts  --      0.8157                 0.3687                 0.5734
 IR Inten    --     14.0753                 7.3092                12.6032

                     13                     14                     15
                      A                      A                      A
 Frequencies --    913.4295               947.5859               991.3122
 Red. masses --      1.8571                 1.1526                 1.1814
 Frc consts  --      0.9129                 0.6098                 0.6840
 IR Inten    --     48.0543                 3.3937                 3.7638

                     16                     17                     18
                      A                      A                      A
 Frequencies --   1021.4889              1033.9440              1058.5699
 Red. masses --      1.1973                 1.3626                 1.5587
 Frc consts  --      0.7361                 0.8583                 1.0291
 IR Inten    --     21.5349                30.3023                 5.6616

                     19                     20                     21
                      A                      A                      A
 Frequencies --   1068.4904              1137.8910              1182.7518
 Red. masses --      1.3587                 1.8182                 1.4224
 Frc consts  --      0.9139                 1.3871                 1.1724
 IR Inten    --     66.8881                13.3019                44.1610

                     22                     23                     24
                      A                      A                      A
 Frequencies --   1284.3043              1300.7227              1328.8126
 Red. masses --      1.3804                 1.7387                 1.0656
 Frc consts  --      1.3415                 1.7332                 1.1085
 IR Inten    --     22.6679                 3.1111                27.6138

                     25                     26                     27
                      A                      A                      A
 Frequencies --   1355.0660              1424.8952              1466.0677
 Red. masses --      1.3471                 1.2628                 1.2020
 Frc consts  --      1.4574                 1.5106                 1.5222
 IR Inten    --     54.3850                 5.1832                10.8561

                     28                     29                     30
                      A                      A                      A
 Frequencies --   1501.7348              1510.5520              1542.6923
 Red. masses --      1.3668                 1.0588                 1.3018
 Frc consts  --      1.8161                 1.4235                 1.8254
 IR Inten    --     36.9908                 3.3592                14.8365

                     31                     32                     33
                      A                      A                      A
 Frequencies --   1548.9763              1588.2883              1622.9959
 Red. masses --      1.6376                 1.0856                 2.7974
 Frc consts  --      2.3150                 1.6136                 4.3414
 IR Inten    --     22.6969                95.9260                44.3013

                     34                     35                     36
                      A                      A                      A
 Frequencies --   3018.6444              3048.7844              3112.7779
 Red. masses --      1.0857                 1.0372                 1.1001
 Frc consts  --      5.8290                 5.6804                 6.2800
 IR Inten    --     45.7495                18.2111                18.5871

                     37                     38                     39
                      A                      A                      A
 Frequencies --   3121.6736              3136.2403              3142.2540
 Red. masses --      1.0584                 1.0985                 1.0617
 Frc consts  --      6.0771                 6.3660                 6.1765
 IR Inten    --      6.1122                15.5497                15.1831

                     40                     41                     42
                      A                      A                      A
 Frequencies --   3158.4066              3205.3206              3223.1104
 Red. masses --      1.0900                 1.1102                 1.1146
 Frc consts  --      6.4066                 6.7206                 6.8222
 IR Inten    --      8.3045                12.8415                12.9820

 - Thermochemistry -
 -------------------
 Temperature   298.150 Kelvin.  Pressure   1.00000 Atm.
 Atom     1 has atomic number  6 and mass  12.00000

 Molecular mass:    86.07317 amu.
 Principal axes and moments of inertia in atomic units:
                           1         2         3
     Eigenvalues --   355.16512 650.64798 784.81428
           X            0.99781   0.06546   0.00932
           Y           -0.06519   0.99751  -0.02683
           Z           -0.01105   0.02616   0.99960
 This molecule is an asymmetric top.
 Rotational symmetry number  1.
 Rotational temperatures (Kelvin)      0.24387     0.13312     0.11036
 Rotational constants (GHZ):           5.08141     2.77376     2.29958
    1 imaginary frequencies ignored.
 Zero-point vibrational energy     358034.0 (Joules/Mol)
                                   85.57217 (Kcal/Mol)
 Warning -- explicit consideration of   9 degrees of freedom as
           vibrations may cause significant error
 Vibrational temperatures:    157.60   312.15   379.58   481.04   576.91
          (Kelvin)            646.20   670.95   725.19   861.48   978.49
                             1204.05  1314.22  1363.36  1426.28  1469.69
                             1487.61  1523.05  1537.32  1637.17  1701.72
                             1847.83  1871.45  1911.86  1949.64  2050.11
                             2109.34  2160.66  2173.35  2219.59  2228.63
                             2285.19  2335.13  4343.16  4386.52  4478.59
                             4491.39  4512.35  4521.00  4544.24  4611.74
                             4637.34

 Zero-point correction=                           0.136368 (Hartree/Particle)
 Thermal correction to Energy=                    0.143068
 Thermal correction to Enthalpy=                  0.144013
 Thermal correction to Gibbs Free Energy=         0.106399
 Sum of electronic and zero-point Energies=           -271.567641
 Sum of electronic and thermal Energies=              -271.560940
 Sum of electronic and thermal Enthalpies=            -271.559996
 Sum of electronic and thermal Free Energies=         -271.597610

                     E (Thermal)             CV                S
                      KCal/Mol        Cal/Mol-Kelvin    Cal/Mol-Kelvin
 Total                   89.777             25.170             79.164
 Electronic               0.000              0.000              0.000
 Translational            0.889              2.981             39.271
 Rotational               0.889              2.981             26.697
 Vibrational             87.999             19.209             13.196
 Vibration     1          0.606              1.942              3.277
 Vibration     2          0.646              1.815              1.984
 Vibration     3          0.670              1.739              1.636
 Vibration     4          0.716              1.607              1.239
 Vibration     5          0.767              1.468              0.959
 Vibration     6          0.808              1.363              0.798
 Vibration     7          0.824              1.325              0.748
 Vibration     8          0.859              1.241              0.648
 Vibration     9          0.957              1.034              0.452

 Optimization completed.
    -- Stationary point found.
 Normal termination of Gaussian 16 at Mon Aug  5 15:03:51 2019.
